TITLE = "VolumeData"
VARIABLES = "x" "y" "z"  "name_1" 
ZONE T= my_zone, SolutionTime = 0.0, DATAPACKING=Block, ZONETYPE=FEBRICK Nodes= 3362 Elements= 1600 VarLocation=([4-4]=CellCentered)   -2.0000000000e+01
   -1.9943380400e+01
   -2.0000000000e+01
   -1.9943376500e+01
   -1.9039703400e+01
   -1.8985769300e+01
   -1.9039703400e+01
   -1.8985763500e+01
   -1.8032936100e+01
   -1.7981815300e+01
   -1.8032936100e+01
   -1.7981809600e+01
   -1.6989252100e+01
   -1.6941049600e+01
   -1.6989252100e+01
   -1.6941043900e+01
   -1.5919838000e+01
   -1.5874622300e+01
   -1.5919838000e+01
   -1.5874618500e+01
   -1.4837065700e+01
   -1.4794876100e+01
   -1.4837065700e+01
   -1.4794872300e+01
   -1.3753943400e+01
   -1.3714781800e+01
   -1.3753943400e+01
   -1.3714777900e+01
   -1.2683497400e+01
   -1.2647327400e+01
   -1.2683497400e+01
   -1.2647324600e+01
   -1.1638149300e+01
   -1.1604901300e+01
   -1.1638149300e+01
   -1.1604897500e+01
   -1.0629159900e+01
   -1.0598731000e+01
   -1.0629159900e+01
   -1.0598729100e+01
   -9.6661796600e+00
   -9.6384429900e+00
   -9.6661796600e+00
   -9.6384401300e+00
   -8.7569475200e+00
   -8.7317514400e+00
   -8.7569475200e+00
   -8.7317495300e+00
   -7.9071426400e+00
   -7.8843216900e+00
   -7.9071426400e+00
   -7.8843197800e+00
   -7.1203923200e+00
   -7.0997705500e+00
   -7.1203923200e+00
   -7.0997691200e+00
   -6.3983998300e+00
   -6.3797955500e+00
   -6.3983998300e+00
   -6.3797941200e+00
   -5.7411646800e+00
   -5.7243976600e+00
   -5.7411646800e+00
   -5.7243962300e+00
   -5.1472640000e+00
   -5.1321573300e+00
   -5.1472640000e+00
   -5.1321559000e+00
   -4.6141519500e+00
   -4.6005349200e+00
   -4.6141519500e+00
   -4.6005334900e+00
   -4.1384549100e+00
   -4.1261673000e+00
   -4.1384549100e+00
   -4.1261663400e+00
   -3.7162454100e+00
   -3.7051379700e+00
   -3.7162454100e+00
   -3.7051370100e+00
   -3.3432788800e+00
   -3.3332138100e+00
   -3.3432788800e+00
   -3.3332130900e+00
   -3.0151865500e+00
   -3.0060384300e+00
   -3.0151865500e+00
   -3.0060379500e+00
   -2.7276291800e+00
   -2.7192847700e+00
   -2.7276291800e+00
   -2.7192843000e+00
   -2.4764103900e+00
   -2.4687681200e+00
   -2.4764103900e+00
   -2.4687676400e+00
   -2.2575554800e+00
   -2.2505250000e+00
   -2.2575554800e+00
   -2.2505245200e+00
   -2.0673630200e+00
   -2.0608639700e+00
   -2.0673630200e+00
   -2.0608634900e+00
   -1.9024313700e+00
   -1.8963933000e+00
   -1.9024313700e+00
   -1.8963929400e+00
   -1.7596700200e+00
   -1.7540309400e+00
   -1.7596700200e+00
   -1.7540307000e+00
   -1.6362968700e+00
   -1.6310025500e+00
   -1.6362968700e+00
   -1.6310023100e+00
   -1.5298261600e+00
   -1.5248293900e+00
   -1.5298261600e+00
   -1.5248292700e+00
   -1.4380520600e+00
   -1.4333118200e+00
   -1.4380520600e+00
   -1.4333117000e+00
   -1.3590275000e+00
   -1.3545081600e+00
   -1.3590275000e+00
   -1.3545079200e+00
   -1.2910414900e+00
   -1.2867121700e+00
   -1.2910414900e+00
   -1.2867120500e+00
   -1.2325968700e+00
   -1.2284308700e+00
   -1.2325968700e+00
   -1.2284307500e+00
   -1.1823874700e+00
   -1.1783617700e+00
   -1.1823874700e+00
   -1.1783616500e+00
   -1.1392772200e+00
   -1.1353720400e+00
   -1.1392772200e+00
   -1.1353719200e+00
   -1.1022802600e+00
   -1.0984784400e+00
   -1.1022802600e+00
   -1.0984784400e+00
   -1.0705429300e+00
   -1.0668298000e+00
   -1.0705429300e+00
   -1.0668298000e+00
   -1.0433270900e+00
   -1.0396901400e+00
   -1.0433270900e+00
   -1.0396900200e+00
   -1.0199959300e+00
   -1.0164240600e+00
   -1.0199959300e+00
   -1.0164240600e+00
   -1.0000000000e+00
   -9.9648410100e-01
   -1.0000000000e+00
   -9.9648404100e-01
   -1.9773845700e+01
   -1.9773840000e+01
   -1.8824270200e+01
   -1.8824264500e+01
   -1.7828743000e+01
   -1.7828737300e+01
   -1.6796711000e+01
   -1.6796705200e+01
   -1.5739234000e+01
   -1.5739230200e+01
   -1.4668549500e+01
   -1.4668545700e+01
   -1.3597519900e+01
   -1.3597516100e+01
   -1.2539024400e+01
   -1.2539021500e+01
   -1.1505346300e+01
   -1.1505343400e+01
   -1.0507621800e+01
   -1.0507618900e+01
   -9.5553922700e+00
   -9.5553894000e+00
   -8.6563100800e+00
   -8.6563081700e+00
   -7.8159928300e+00
   -7.8159909200e+00
   -7.0380258600e+00
   -7.0380244300e+00
   -6.3240933400e+00
   -6.3240919100e+00
   -5.6741957700e+00
   -5.6741948100e+00
   -5.0869255100e+00
   -5.0869245500e+00
   -4.5597648600e+00
   -4.5597639100e+00
   -4.0893783600e+00
   -4.0893778800e+00
   -3.6718828700e+00
   -3.6718823900e+00
   -3.3030803200e+00
   -3.3030796100e+00
   -2.9786508100e+00
   -2.9786503300e+00
   -2.6943037500e+00
   -2.6943032700e+00
   -2.4458894700e+00
   -2.4458890000e+00
   -2.2294778800e+00
   -2.2294776400e+00
   -2.0414085400e+00
   -2.0414085400e+00
   -1.8783183100e+00
   -1.8783181900e+00
   -1.7371507900e+00
   -1.7371506700e+00
   -1.6151548600e+00
   -1.6151548600e+00
   -1.5098727900e+00
   -1.5098727900e+00
   -1.4191232900e+00
   -1.4191234100e+00
   -1.3409810100e+00
   -1.3409810100e+00
   -1.2737540000e+00
   -1.2737541200e+00
   -1.2159618100e+00
   -1.2159619300e+00
   -1.1663129300e+00
   -1.1663130500e+00
   -1.1236839300e+00
   -1.1236840500e+00
   -1.0871000300e+00
   -1.0871001500e+00
   -1.0557169900e+00
   -1.0557172300e+00
   -1.0288051400e+00
   -1.0288052600e+00
   -1.0057343200e+00
   -1.0057345600e+00
   -9.8596167600e-01
   -9.8596185400e-01
   -1.9492351500e+01
   -1.9492345800e+01
   -1.8556121800e+01
   -1.8556116100e+01
   -1.7574585000e+01
   -1.7574579200e+01
   -1.6557056400e+01
   -1.6557050700e+01
   -1.5514442400e+01
   -1.5514436700e+01
   -1.4458805100e+01
   -1.4458800300e+01
   -1.3402827300e+01
   -1.3402822500e+01
   -1.2359207200e+01
   -1.2359203300e+01
   -1.1340056400e+01
   -1.1340052600e+01
   -1.0356352800e+01
   -1.0356349000e+01
   -9.4175052600e+00
   -9.4175024000e+00
   -8.5310592700e+00
   -8.5310564000e+00
   -7.7025508900e+00
   -7.7025485000e+00
   -6.9355173100e+00
   -6.9355154000e+00
   -6.2316184000e+00
   -6.2316165000e+00
   -5.5908541700e+00
   -5.5908527400e+00
   -5.0118374800e+00
   -5.0118360500e+00
   -4.4920849800e+00
   -4.4920840300e+00
   -4.0283093500e+00
   -4.0283083900e+00
   -3.6166811000e+00
   -3.6166801500e+00
   -3.2530612900e+00
   -3.2530605800e+00
   -2.9331913000e+00
   -2.9331905800e+00
   -2.6528403800e+00
   -2.6528396600e+00
   -2.4079172600e+00
   -2.4079167800e+00
   -2.1945469400e+00
   -2.1945467000e+00
   -2.0091209400e+00
   -2.0091204600e+00
   -1.8483225100e+00
   -1.8483222700e+00
   -1.7091389900e+00
   -1.7091386300e+00
   -1.5888575300e+00
   -1.5888572900e+00
   -1.4850550900e+00
   -1.4850548500e+00
   -1.3955808900e+00
   -1.3955807700e+00
   -1.3185367600e+00
   -1.3185366400e+00
   -1.2522546100e+00
   -1.2522544900e+00
   -1.1952745900e+00
   -1.1952744700e+00
   -1.1463234400e+00
   -1.1463234400e+00
   -1.1042935800e+00
   -1.1042935800e+00
   -1.0682238300e+00
   -1.0682238300e+00
   -1.0372818700e+00
   -1.0372817500e+00
   -1.0107481500e+00
   -1.0107481500e+00
   -9.8800158500e-01
   -9.8800158500e-01
   -9.6850681300e-01
   -9.6850681300e-01
   -1.9100496300e+01
   -1.9100490600e+01
   -1.8182844200e+01
   -1.8182840300e+01
   -1.7220785100e+01
   -1.7220781300e+01
   -1.6223449700e+01
   -1.6223444000e+01
   -1.5201524700e+01
   -1.5201520000e+01
   -1.4166835800e+01
   -1.4166832000e+01
   -1.3131812100e+01
   -1.3131809200e+01
   -1.2108902000e+01
   -1.2108899100e+01
   -1.1109975800e+01
   -1.1109973000e+01
   -1.0145793000e+01
   -1.0145790100e+01
   -9.2255764000e+00
   -9.2255744900e+00
   -8.3567209200e+00
   -8.3567190200e+00
   -7.5446538900e+00
   -7.5446524600e+00
   -6.7928419100e+00
   -6.7928400000e+00
   -6.1029110000e+00
   -6.1029095600e+00
   -5.4748621000e+00
   -5.4748611500e+00
   -4.9073352800e+00
   -4.9073343300e+00
   -4.3978972400e+00
   -4.3978967700e+00
   -3.9433248000e+00
   -3.9433240900e+00
   -3.5398650200e+00
   -3.5398643000e+00
   -3.1834611900e+00
   -3.1834604700e+00
   -2.8699386100e+00
   -2.8699381400e+00
   -2.5951509500e+00
   -2.5951504700e+00
   -2.3550880000e+00
   -2.3550877600e+00
   -2.1459519900e+00
   -2.1459517500e+00
   -1.9642055000e+00
   -1.9642053800e+00
   -1.8065981900e+00
   -1.8065980700e+00
   -1.6701765100e+00
   -1.6701765100e+00
   -1.5522819800e+00
   -1.5522819800e+00
   -1.4505394700e+00
   -1.4505394700e+00
   -1.3628408900e+00
   -1.3628408900e+00
   -1.2873255000e+00
   -1.2873256200e+00
   -1.2223587000e+00
   -1.2223587000e+00
   -1.1665093900e+00
   -1.1665095100e+00
   -1.1185296800e+00
   -1.1185298000e+00
   -1.0773339300e+00
   -1.0773339300e+00
   -1.0419799100e+00
   -1.0419800300e+00
   -1.0116518700e+00
   -1.0116519900e+00
   -9.8564475800e-01
   -9.8564487700e-01
   -9.6334964000e-01
   -9.6334976000e-01
   -9.4424170300e-01
   -9.4424182200e-01
   -1.8600496300e+01
   -1.8600494400e+01
   -1.7706552500e+01
   -1.7706552500e+01
   -1.6769350100e+01
   -1.6769350100e+01
   -1.5797781900e+01
   -1.5797781000e+01
   -1.4802260400e+01
   -1.4802259400e+01
   -1.3794303900e+01
   -1.3794303900e+01
   -1.2786022200e+01
   -1.2786022200e+01
   -1.1789541200e+01
   -1.1789540300e+01
   -1.0816423400e+01
   -1.0816423400e+01
   -9.8771514900e+00
   -9.8771514900e+00
   -8.9807100300e+00
   -8.9807100300e+00
   -8.1343030900e+00
   -8.1343030900e+00
   -7.3432173700e+00
   -7.3432173700e+00
   -6.6108293500e+00
   -6.6108293500e+00
   -5.9387240400e+00
   -5.9387240400e+00
   -5.3269019100e+00
   -5.3269019100e+00
   -4.7740383100e+00
   -4.7740383100e+00
   -4.2777624100e+00
   -4.2777624100e+00
   -3.8349342300e+00
   -3.8349344700e+00
   -3.4418983500e+00
   -3.4418985800e+00
   -3.0947027200e+00
   -3.0947029600e+00
   -2.7892806500e+00
   -2.7892808900e+00
   -2.5215926200e+00
   -2.5215928600e+00
   -2.2877321200e+00
   -2.2877323600e+00
   -2.0839996300e+00
   -2.0839996300e+00
   -1.9069486900e+00
   -1.9069489200e+00
   -1.7534133200e+00
   -1.7534135600e+00
   -1.6205164200e+00
   -1.6205166600e+00
   -1.5056679200e+00
   -1.5056680400e+00
   -1.4065539800e+00
   -1.4065542200e+00
   -1.3211212200e+00
   -1.3211214500e+00
   -1.2475570400e+00
   -1.2475571600e+00
   -1.1842687100e+00
   -1.1842688300e+00
   -1.1298623100e+00
   -1.1298625500e+00
   -1.0831222500e+00
   -1.0831224900e+00
   -1.0429908000e+00
   -1.0429910400e+00
   -1.0085502900e+00
   -1.0085504100e+00
   -9.7900587300e-01
   -9.7900605200e-01
   -9.5367062100e-01
   -9.5367080000e-01
   -9.3195152300e-01
   -9.3195170200e-01
   -9.1333729000e-01
   -9.1333746900e-01
   -1.7995180100e+01
   -1.7995178200e+01
   -1.7129943800e+01
   -1.7129941900e+01
   -1.6222837400e+01
   -1.6222835500e+01
   -1.5282469700e+01
   -1.5282467800e+01
   -1.4318917300e+01
   -1.4318915400e+01
   -1.3343329400e+01
   -1.3343328500e+01
   -1.2367426900e+01
   -1.2367425900e+01
   -1.1402945500e+01
   -1.1402944600e+01
   -1.0461077700e+01
   -1.0461076700e+01
   -9.5519695300e+00
   -9.5519685700e+00
   -8.6843156800e+00
   -8.6843147300e+00
   -7.8650889400e+00
   -7.8650879900e+00
   -7.0994072000e+00
   -7.0994067200e+00
   -6.3905386900e+00
   -6.3905377400e+00
   -5.7400164600e+00
   -5.7400159800e+00
   -5.1478419300e+00
   -5.1478414500e+00
   -4.6127324100e+00
   -4.6127319300e+00
   -4.1323933600e+00
   -4.1323928800e+00
   -3.7037861300e+00
   -3.7037856600e+00
   -3.3233718900e+00
   -3.3233714100e+00
   -2.9873259100e+00
   -2.9873254300e+00
   -2.6917116600e+00
   -2.6917114300e+00
   -2.4326200500e+00
   -2.4326195700e+00
   -2.2062695000e+00
   -2.2062692600e+00
   -2.0090794600e+00
   -2.0090789800e+00
   -1.8377143100e+00
   -1.8377139600e+00
   -1.6891094400e+00
   -1.6891090900e+00
   -1.5604802400e+00
   -1.5604798800e+00
   -1.4493198400e+00
   -1.4493194800e+00
   -1.3533887900e+00
   -1.3533885500e+00
   -1.2706996200e+00
   -1.2706992600e+00
   -1.1994977000e+00
   -1.1994974600e+00
   -1.1382417700e+00
   -1.1382414100e+00
   -1.0855826100e+00
   -1.0855822600e+00
   -1.0403435200e+00
   -1.0403431700e+00
   -1.0015007300e+00
   -1.0015004900e+00
   -9.6816617300e-01
   -9.6816593400e-01
   -9.3957054600e-01
   -9.3957030800e-01
   -9.1504889700e-01
   -9.1504865900e-01
   -8.9402729300e-01
   -8.9402699500e-01
   -8.7601077600e-01
   -8.7601053700e-01
   -1.7287977200e+01
   -1.7287965800e+01
   -1.6456287400e+01
   -1.6456275900e+01
   -1.5584350600e+01
   -1.5584340100e+01
   -1.4680440900e+01
   -1.4680430400e+01
   -1.3754245800e+01
   -1.3754236200e+01
   -1.2816481600e+01
   -1.2816473000e+01
   -1.1878415100e+01
   -1.1878407500e+01
   -1.0951327300e+01
   -1.0951319700e+01
   -1.0045975700e+01
   -1.0045969000e+01
   -9.1721134200e+00
   -9.1721077000e+00
   -8.3380994800e+00
   -8.3380937600e+00
   -7.5506343800e+00
   -7.5506291400e+00
   -6.8146386100e+00
   -6.8146338500e+00
   -6.1332526200e+00
   -6.1332488100e+00
   -5.5079517400e+00
   -5.5079484000e+00
   -4.9387359600e+00
   -4.9387326200e+00
   -4.4243726700e+00
   -4.4243698100e+00
   -3.9626567400e+00
   -3.9626543500e+00
   -3.5506665700e+00
   -3.5506644200e+00
   -3.1850011300e+00
   -3.1849992300e+00
   -2.8619837800e+00
   -2.8619818700e+00
   -2.5778307900e+00
   -2.5778291200e+00
   -2.3287839900e+00
   -2.3287825600e+00
   -2.1112091500e+00
   -2.1112079600e+00
   -1.9216642400e+00
   -1.9216631700e+00
   -1.7569429900e+00
   -1.7569420300e+00
   -1.6140995000e+00
   -1.6140986700e+00
   -1.4904573000e+00
   -1.4904565800e+00
   -1.3836066700e+00
   -1.3836059600e+00
   -1.2913949500e+00
   -1.2913943500e+00
   -1.2119115600e+00
   -1.2119110800e+00
   -1.1434701700e+00
   -1.1434696900e+00
   -1.0845891200e+00
   -1.0845887700e+00
   -1.0339716700e+00
   -1.0339711900e+00
   -9.9048644300e-01
   -9.9048608500e-01
   -9.5314967600e-01
   -9.5314931900e-01
   -9.2110753100e-01
   -9.2110717300e-01
   -8.9362055100e-01
   -8.9362025300e-01
   -8.7004959600e-01
   -8.7004929800e-01
   -8.4984296600e-01
   -8.4984272700e-01
   -8.3252501500e-01
   -8.3252471700e-01
   -1.6482896800e+01
   -1.6482896800e+01
   -1.5689402600e+01
   -1.5689402600e+01
   -1.4857510600e+01
   -1.4857510600e+01
   -1.3995114300e+01
   -1.3995113400e+01
   -1.3111455900e+01
   -1.3111455900e+01
   -1.2216759700e+01
   -1.2216759700e+01
   -1.1321776400e+01
   -1.1321775400e+01
   -1.0437265400e+01
   -1.0437265400e+01
   -9.5734939600e+00
   -9.5734939600e+00
   -8.7397651700e+00
   -8.7397651700e+00
   -7.9440541300e+00
   -7.9440541300e+00
   -7.1927547500e+00
   -7.1927547500e+00
   -6.4905610100e+00
   -6.4905605300e+00
   -5.8404688800e+00
   -5.8404684100e+00
   -5.2438855200e+00
   -5.2438855200e+00
   -4.7008118600e+00
   -4.7008118600e+00
   -4.2100715600e+00
   -4.2100715600e+00
   -3.7695608100e+00
   -3.7695605800e+00
   -3.3764917900e+00
   -3.3764917900e+00
   -3.0276200800e+00
   -3.0276198400e+00
   -2.7194378400e+00
   -2.7194376000e+00
   -2.4483349300e+00
   -2.4483346900e+00
   -2.2107260200e+00
   -2.2107257800e+00
   -2.0031437900e+00
   -2.0031435500e+00
   -1.8223038900e+00
   -1.8223036500e+00
   -1.6651476600e+00
   -1.6651474200e+00
   -1.5288646200e+00
   -1.5288643800e+00
   -1.4109008300e+00
   -1.4109005900e+00
   -1.3089574600e+00
   -1.3089572200e+00
   -1.2209806400e+00
   -1.2209804100e+00
   -1.1451476800e+00
   -1.1451474400e+00
   -1.0798497200e+00
   -1.0798494800e+00
   -1.0236728200e+00
   -1.0236725800e+00
   -9.7538000300e-01
   -9.7537976500e-01
   -9.3389189200e-01
   -9.3389165400e-01
   -8.9826989200e-01
   -8.9826965300e-01
   -8.6769932500e-01
   -8.6769908700e-01
   -8.4147471200e-01
   -8.4147447300e-01
   -8.1898635600e-01
   -8.1898605800e-01
   -7.9970771100e-01
   -7.9970747200e-01
   -7.8318512400e-01
   -7.8318488600e-01
   -1.5584485100e+01
   -1.5584478400e+01
   -1.4833626700e+01
   -1.4833621000e+01
   -1.4046433400e+01
   -1.4046427700e+01
   -1.3230374300e+01
   -1.3230369600e+01
   -1.2394196500e+01
   -1.2394191700e+01
   -1.1547574000e+01
   -1.1547569300e+01
   -1.0700677900e+01
   -1.0700674100e+01
   -9.8636932400e+00
   -9.8636894200e+00
   -9.0463333100e+00
   -9.0463295000e+00
   -8.2574024200e+00
   -8.2573986100e+00
   -7.5044455500e+00
   -7.5044426900e+00
   -6.7935142500e+00
   -6.7935118700e+00
   -6.1290497800e+00
   -6.1290473900e+00
   -5.5138883600e+00
   -5.5138859700e+00
   -4.9493603700e+00
   -4.9493584600e+00
   -4.4354667700e+00
   -4.4354648600e+00
   -3.9710943700e+00
   -3.9710927000e+00
   -3.5542526200e+00
   -3.5542511900e+00
   -3.1823036700e+00
   -3.1823024700e+00
   -2.8521773800e+00
   -2.8521761900e+00
   -2.5605540300e+00
   -2.5605528400e+00
   -2.3040177800e+00
   -2.3040168300e+00
   -2.0791759500e+00
   -2.0791752300e+00
   -1.8827472900e+00
   -1.8827465800e+00
   -1.7116241500e+00
   -1.7116235500e+00
   -1.5629121100e+00
   -1.5629115100e+00
   -1.4339517400e+00
   -1.4339511400e+00
   -1.3223263000e+00
   -1.3223258300e+00
   -1.2258604800e+00
   -1.2258600000e+00
   -1.1426107900e+00
   -1.1426103100e+00
   -1.0708524000e+00
   -1.0708520400e+00
   -1.0090628900e+00
   -1.0090625300e+00
   -9.5590448400e-01
   -9.5590412600e-01
   -9.1020649700e-01
   -9.1020613900e-01
   -8.7094765900e-01
   -8.7094730100e-01
   -8.3723962300e-01
   -8.3723932500e-01
   -8.0831164100e-01
   -8.0831134300e-01
   -7.8349614100e-01
   -7.8349584300e-01
   -7.6221603200e-01
   -7.6221579300e-01
   -7.4397331500e-01
   -7.4397301700e-01
   -7.2833848000e-01
   -7.2833818200e-01
   -1.4597840300e+01
   -1.4597841300e+01
   -1.3893817900e+01
   -1.3893819800e+01
   -1.3155727400e+01
   -1.3155728300e+01
   -1.2390570600e+01
   -1.2390572500e+01
   -1.1606551200e+01
   -1.1606552100e+01
   -1.0812738400e+01
   -1.0812738400e+01
   -1.0018669100e+01
   -1.0018670100e+01
   -9.2338924400e+00
   -9.2338933900e+00
   -8.4675169000e+00
   -8.4675169000e+00
   -7.7277960800e+00
   -7.7277965500e+00
   -7.0218067200e+00
   -7.0218071900e+00
   -6.3552207900e+00
   -6.3552212700e+00
   -5.7322039600e+00
   -5.7322039600e+00
   -5.1554136300e+00
   -5.1554136300e+00
   -4.6260991100e+00
   -4.6260991100e+00
   -4.1442604100e+00
   -4.1442604100e+00
   -3.7088542000e+00
   -3.7088542000e+00
   -3.3180136700e+00
   -3.3180134300e+00
   -2.9692657000e+00
   -2.9692654600e+00
   -2.6597316300e+00
   -2.6597311500e+00
   -2.3862986600e+00
   -2.3862984200e+00
   -2.1457643500e+00
   -2.1457638700e+00
   -1.9349473700e+00
   -1.9349470100e+00
   -1.7507712800e+00
   -1.7507709300e+00
   -1.5903222600e+00
   -1.5903219000e+00
   -1.4508863700e+00
   -1.4508860100e+00
   -1.3299701200e+00
   -1.3299696400e+00
   -1.2253074600e+00
   -1.2253071100e+00
   -1.1348588500e+00
   -1.1348584900e+00
   -1.0568020300e+00
   -1.0568015600e+00
   -9.8951971500e-01
   -9.8951923800e-01
   -9.3158441800e-01
   -9.3158394100e-01
   -8.8174188100e-01
   -8.8174140500e-01
   -8.3889436700e-01
   -8.3889389000e-01
   -8.0208432700e-01
   -8.0208385000e-01
   -7.7047890400e-01
   -7.7047842700e-01
   -7.4335539300e-01
   -7.4335485700e-01
   -7.2008776700e-01
   -7.2008723000e-01
   -7.0013511200e-01
   -7.0013457500e-01
   -6.8303024800e-01
   -6.8302977100e-01
   -6.6837066400e-01
   -6.6837012800e-01
   -1.3452223800e+01
   -1.3452199000e+01
   -1.2803216000e+01
   -1.2803193100e+01
   -1.2122800800e+01
   -1.2122778900e+01
   -1.1417436600e+01
   -1.1417415600e+01
   -1.0694682100e+01
   -1.0694662100e+01
   -9.9628992100e+00
   -9.9628810900e+00
   -9.2308807400e+00
   -9.2308645200e+00
   -8.5074291200e+00
   -8.5074138600e+00
   -7.8009395600e+00
   -7.8009257300e+00
   -7.1190223700e+00
   -7.1190099700e+00
   -6.4682006800e+00
   -6.4681897200e+00
   -5.8537035000e+00
   -5.8536939600e+00
   -5.2793707800e+00
   -5.2793617200e+00
   -4.7476525300e+00
   -4.7476444200e+00
   -4.2596998200e+00
   -4.2596926700e+00
   -3.8155131300e+00
   -3.8155071700e+00
   -3.4141306900e+00
   -3.4141254400e+00
   -3.0538311000e+00
   -3.0538268100e+00
   -2.7323353300e+00
   -2.7323315100e+00
   -2.4469890600e+00
   -2.4469857200e+00
   -2.1949226900e+00
   -2.1949200600e+00
   -1.9731844700e+00
   -1.9731820800e+00
   -1.7788412600e+00
   -1.7788392300e+00
   -1.6090571900e+00
   -1.6090555200e+00
   -1.4611460000e+00
   -1.4611445700e+00
   -1.3326060800e+00
   -1.3326048900e+00
   -1.2211384800e+00
   -1.2211375200e+00
   -1.1246544100e+00
   -1.1246537000e+00
   -1.0412737100e+00
   -1.0412731200e+00
   -9.6931642300e-01
   -9.6931600600e-01
   -9.0729177000e-01
   -9.0729141200e-01
   -8.5388368400e-01
   -8.5388344500e-01
   -8.0793595300e-01
   -8.0793577400e-01
   -7.6843661100e-01
   -7.6843655100e-01
   -7.3450303100e-01
   -7.3450303100e-01
   -7.0536732700e-01
   -7.0536738600e-01
   -6.8036329700e-01
   -6.8036341700e-01
   -6.5891391000e-01
   -6.5891403000e-01
   -6.4052033400e-01
   -6.4052057300e-01
   -6.2475216400e-01
   -6.2475234300e-01
   -6.1123812200e-01
   -6.1123836000e-01
   -1.2219627400e+01
   -1.2219585400e+01
   -1.1629859000e+01
   -1.1629818900e+01
   -1.1011549900e+01
   -1.1011512800e+01
   -1.0370569200e+01
   -1.0370533000e+01
   -9.7137842200e+00
   -9.7137517900e+00
   -9.0487966500e+00
   -9.0487661400e+00
   -8.3835945100e+00
   -8.3835668600e+00
   -7.7261772200e+00
   -7.7261514700e+00
   -7.0841736800e+00
   -7.0841503100e+00
   -6.4644999500e+00
   -6.4644789700e+00
   -5.8730826400e+00
   -5.8730640400e+00
   -5.3146748500e+00
   -5.3146581600e+00
   -4.7927651400e+00
   -4.7927503600e+00
   -4.3095803300e+00
   -4.3095674500e+00
   -3.8661663500e+00
   -3.8661551500e+00
   -3.4625237000e+00
   -3.4625139200e+00
   -3.0977780800e+00
   -3.0977697400e+00
   -2.7703654800e+00
   -2.7703585600e+00
   -2.4782147400e+00
   -2.4782087800e+00
   -2.2189137900e+00
   -2.2189087900e+00
   -1.9898554100e+00
   -1.9898512400e+00
   -1.7883566600e+00
   -1.7883532000e+00
   -1.6117525100e+00
   -1.6117497700e+00
   -1.4574657700e+00
   -1.4574635000e+00
   -1.3230553900e+00
   -1.3230537200e+00
   -1.2062481600e+00
   -1.2062468500e+00
   -1.1049549600e+00
   -1.1049540000e+00
   -1.0172777200e+00
   -1.0172771200e+00
   -9.4150769700e-01
   -9.4150739900e-01
   -8.7611842200e-01
   -8.7611842200e-01
   -8.1975513700e-01
   -8.1975531600e-01
   -7.7122199500e-01
   -7.7122235300e-01
   -7.2946822600e-01
   -7.2946870300e-01
   -6.9357425000e-01
   -6.9357490500e-01
   -6.6273802500e-01
   -6.6273880000e-01
   -6.3626176100e-01
   -6.3626265500e-01
   -6.1353999400e-01
   -6.1354094700e-01
   -5.9404844000e-01
   -5.9404945400e-01
   -5.7733380800e-01
   -5.7733488100e-01
   -5.6300485100e-01
   -5.6300598400e-01
   -5.5072432800e-01
   -5.5072552000e-01
   -1.0908019100e+01
   -1.0907963800e+01
   -1.0381329500e+01
   -1.0381277100e+01
   -9.8291521100e+00
   -9.8291025200e+00
   -9.2567262600e+00
   -9.2566804900e+00
   -8.6701889000e+00
   -8.6701459900e+00
   -8.0763244600e+00
   -8.0762853600e+00
   -7.4822692900e+00
   -7.4822325700e+00
   -6.8951659200e+00
   -6.8951325400e+00
   -6.3218278900e+00
   -6.3217978500e+00
   -5.7684311900e+00
   -5.7684040100e+00
   -5.2402696600e+00
   -5.2402453400e+00
   -4.7415862100e+00
   -4.7415647500e+00
   -4.2754974400e+00
   -4.2754783600e+00
   -3.8439915200e+00
   -3.8439748300e+00
   -3.4480030500e+00
   -3.4479885100e+00
   -3.0875318100e+00
   -3.0875194100e+00
   -2.7617976700e+00
   -2.7617869400e+00
   -2.4694037400e+00
   -2.4693946800e+00
   -2.2084999100e+00
   -2.2084922800e+00
   -1.9769325300e+00
   -1.9769262100e+00
   -1.7723730800e+00
   -1.7723678400e+00
   -1.5924255800e+00
   -1.5924214100e+00
   -1.4347101400e+00
   -1.4347068100e+00
   -1.2969251900e+00
   -1.2969225600e+00
   -1.1768907300e+00
   -1.1768888200e+00
   -1.0725766400e+00
   -1.0725752100e+00
   -9.8211717600e-01
   -9.8211634200e-01
   -9.0381747500e-01
   -9.0381705800e-01
   -8.3615148100e-01
   -8.3615142100e-01
   -7.7775591600e-01
   -7.7775621400e-01
   -7.2742098600e-01
   -7.2742152200e-01
   -6.8407869300e-01
   -6.8407946800e-01
   -6.4679068300e-01
   -6.4679169700e-01
   -6.1473584200e-01
   -6.1473697400e-01
   -5.8719766100e-01
   -5.8719897300e-01
   -5.6355315400e-01
   -5.6355464500e-01
   -5.4326158800e-01
   -5.4326319700e-01
   -5.2585476600e-01
   -5.2585643500e-01
   -5.1092785600e-01
   -5.1092958500e-01
   -4.9813148400e-01
   -4.9813330200e-01
   -4.8716440800e-01
   -4.8716628600e-01
   -9.5258827200e+00
   -9.5258026100e+00
   -9.0657005300e+00
   -9.0656242400e+00
   -8.5832481400e+00
   -8.5831766100e+00
   -8.0831050900e+00
   -8.0830383300e+00
   -7.5706319800e+00
   -7.5705699900e+00
   -7.0517573400e+00
   -7.0517001200e+00
   -6.5327158000e+00
   -6.5326628700e+00
   -6.0197482100e+00
   -6.0197000500e+00
   -5.5188074100e+00
   -5.5187640200e+00
   -5.0352907200e+00
   -5.0352516200e+00
   -4.5738215400e+00
   -4.5737867400e+00
   -4.1381092100e+00
   -4.1380782100e+00
   -3.7308747800e+00
   -3.7308478400e+00
   -3.3538570400e+00
   -3.3538334400e+00
   -3.0078713900e+00
   -3.0078511200e+00
   -2.6929185400e+00
   -2.6929009000e+00
   -2.4083159000e+00
   -2.4083011200e+00
   -2.1528437100e+00
   -2.1528310800e+00
   -1.9248852700e+00
   -1.9248747800e+00
   -1.7225587400e+00
   -1.7225500300e+00
   -1.5438298000e+00
   -1.5438227700e+00
   -1.3866050200e+00
   -1.3865994200e+00
   -1.2488049300e+00
   -1.2488005200e+00
   -1.1284185600e+00
   -1.1284153500e+00
   -1.0235413300e+00
   -1.0235390700e+00
   -9.3239933300e-01
   -9.3239790200e-01
   -8.5336262000e-01
   -8.5336190500e-01
   -7.8495013700e-01
   -7.8495001800e-01
   -7.2582858800e-01
   -7.2582900500e-01
   -6.7480689300e-01
   -6.7480772700e-01
   -6.3082790400e-01
   -6.3082921500e-01
   -5.9295862900e-01
   -5.9296023800e-01
   -5.6037914800e-01
   -5.6038105500e-01
   -5.3237193800e-01
   -5.3237408400e-01
   -5.0831115200e-01
   -5.0831353700e-01
   -4.8765233200e-01
   -4.8765489500e-01
   -4.6992304900e-01
   -4.6992579100e-01
   -4.5471423900e-01
   -4.5471712900e-01
   -4.4167220600e-01
   -4.4167521600e-01
   -4.3049168600e-01
   -4.3049478500e-01
   -4.2090946400e-01
   -4.2091265300e-01
   -8.0821533200e+00
   -8.0820560500e+00
   -7.6914730100e+00
   -7.6913809800e+00
   -7.2818870500e+00
   -7.2818002700e+00
   -6.8572821600e+00
   -6.8572006200e+00
   -6.4222087900e+00
   -6.4221329700e+00
   -5.9817009000e+00
   -5.9816312800e+00
   -5.5410513900e+00
   -5.5409874900e+00
   -5.1055584000e+00
   -5.1055002200e+00
   -4.6802763900e+00
   -4.6802234600e+00
   -4.2697858800e+00
   -4.2697386700e+00
   -3.8780138500e+00
   -3.8779716500e+00
   -3.5081081400e+00
   -3.5080707100e+00
   -3.1623795000e+00
   -3.1623466000e+00
   -2.8423035100e+00
   -2.8422749000e+00
   -2.5485730200e+00
   -2.5485482200e+00
   -2.2811882500e+00
   -2.2811667900e+00
   -2.0395698500e+00
   -2.0395517300e+00
   -1.8226821400e+00
   -1.8226668800e+00
   -1.6291528900e+00
   -1.6291401400e+00
   -1.4573842300e+00
   -1.4573737400e+00
   -1.3056491600e+00
   -1.3056407000e+00
   -1.1721704000e+00
   -1.1721637200e+00
   -1.0551825800e+00
   -1.0551774500e+00
   -9.5297849200e-01
   -9.5297467700e-01
   -8.6394119300e-01
   -8.6393851000e-01
   -7.8656458900e-01
   -7.8656292000e-01
   -7.1946495800e-01
   -7.1946418300e-01
   -6.6138500000e-01
   -6.6138494000e-01
   -6.1119270300e-01
   -6.1119329900e-01
   -5.6787693500e-01
   -5.6787812700e-01
   -5.3054022800e-01
   -5.3054189700e-01
   -4.9839043600e-01
   -4.9839252200e-01
   -4.7073149700e-01
   -4.7073397000e-01
   -4.4695431000e-01
   -4.4695708200e-01
   -4.2652747000e-01
   -4.2653051000e-01
   -4.0898880400e-01
   -4.0899208200e-01
   -3.9393726000e-01
   -3.9394071700e-01
   -3.8102546300e-01
   -3.8102909900e-01
   -3.6995318500e-01
   -3.6995697000e-01
   -3.6046129500e-01
   -3.6046519900e-01
   -3.5232630400e-01
   -3.5233032700e-01
   -6.5861663800e+00
   -6.5860481300e+00
   -6.2675313900e+00
   -6.2674193400e+00
   -5.9334769200e+00
   -5.9333715400e+00
   -5.5871729900e+00
   -5.5870742800e+00
   -5.2323312800e+00
   -5.2322397200e+00
   -4.8730578400e+00
   -4.8729729700e+00
   -4.5136680600e+00
   -4.5135903400e+00
   -4.1584844600e+00
   -4.1584134100e+00
   -3.8116283400e+00
   -3.8115644500e+00
   -3.4768364400e+00
   -3.4767789800e+00
   -3.1573107200e+00
   -3.1572597000e+00
   -2.8556191900e+00
   -2.8555738900e+00
   -2.5736463100e+00
   -2.5736064900e+00
   -2.3125953700e+00
   -2.3125608000e+00
   -2.0730316600e+00
   -2.0730016200e+00
   -1.8549550800e+00
   -1.8549294500e+00
   -1.6578935400e+00
   -1.6578717200e+00
   -1.4810020900e+00
   -1.4809837300e+00
   -1.3231614800e+00
   -1.3231462200e+00
   -1.1830686300e+00
   -1.1830561200e+00
   -1.0593149700e+00
   -1.0593048300e+00
   -9.5045101600e-01
   -9.5044302900e-01
   -8.5503691400e-01
   -8.5503077500e-01
   -7.7168023600e-01
   -7.7167570600e-01
   -6.9906222800e-01
   -6.9905912900e-01
   -6.3595461800e-01
   -6.3595277100e-01
   -5.8122885200e-01
   -5.8122807700e-01
   -5.3385937200e-01
   -5.3385949100e-01
   -4.9292302100e-01
   -4.9292397500e-01
   -4.5759511000e-01
   -4.5759674900e-01
   -4.2714366300e-01
   -4.2714589800e-01
   -4.0092259600e-01
   -4.0092533800e-01
   -3.7836423500e-01
   -3.7836742400e-01
   -3.5897180400e-01
   -3.5897535100e-01
   -3.4231185900e-01
   -3.4231576300e-01
   -3.2800751900e-01
   -3.2801166200e-01
   -3.1573158500e-01
   -3.1573599600e-01
   -3.0520087500e-01
   -3.0520546400e-01
   -2.9617044300e-01
   -2.9617521200e-01
   -2.8842893200e-01
   -2.8843388000e-01
   -2.8179410100e-01
   -2.8179916700e-01
   -5.0475931200e+00
   -5.0474524500e+00
   -4.8030772200e+00
   -4.8029437100e+00
   -4.5467281300e+00
   -4.5466027300e+00
   -4.2809791600e+00
   -4.2808618500e+00
   -4.0086784400e+00
   -4.0085692400e+00
   -3.7329766800e+00
   -3.7328758200e+00
   -3.4571859800e+00
   -3.4570934800e+00
   -3.1846227600e+00
   -3.1845386000e+00
   -2.9184501200e+00
   -2.9183740600e+00
   -2.6615355000e+00
   -2.6614670800e+00
   -2.4163358200e+00
   -2.4162747900e+00
   -2.1848216100e+00
   -2.1847677200e+00
   -1.9684395800e+00